{
  "H": {
    "position": [0, 0, "Nonmetal"],
    "properties": {
      "atomic_number": 1,
      "melting_point": 14.01,
      "atomic_volume": 14.1,
      "atomic_weight": 1.0079,
      "density": 0.0899,
      "atomic_radius": 25.0,
      "nvalence": 1
    }
  },
  "He": {
    "position": [0, 17, "Noble gas"],
    "properties": {
      "atomic_number": 2,
      "melting_point": 0.95,
      "atomic_volume": 31.8,
      "atomic_weight": 4.0026,
      "density": 0.1787,
      "atomic_radius": 120.0,
      "nvalence": 0
    }
  },
  "Li": {
    "position": [1, 0, "Alkali metal"],
    "properties": {
      "atomic_number": 3,
      "melting_point": 453.65,
      "atomic_volume": 13.1,
      "atomic_weight": 6.941,
      "density": 0.53,
      "atomic_radius": 145.0,
      "nvalence": 1
    }
  },
  "Be": {
    "position": [1, 1, "Alkaline earth metal"],
    "properties": {
      "atomic_number": 4,
      "melting_point": 1560,
      "atomic_volume": 5.0,
      "atomic_weight": 9.01218,
      "density": 1.85,
      "atomic_radius": 105.0,
      "nvalence": 2
    }
  },
  "B": {
    "position": [1, 12, "Metalloid"],
    "properties": {
      "atomic_number": 5,
      "melting_point": 2349,
      "atomic_volume": 4.6,
      "atomic_weight": 10.81,
      "density": 2.34,
      "atomic_radius": 85.0,
      "nvalence": 3
    }
  },
  "C": {
    "position": [1, 13, "Nonmetal"],
    "properties": {
      "atomic_number": 6,
      "melting_point": 3823,
      "atomic_volume": 5.3,
      "atomic_weight": 12.011,
      "density": 2.62,
      "atomic_radius": 70.0,
      "nvalence": 4
    }
  },
  "N": {
    "position": [1, 14, "Nonmetal"],
    "properties": {
      "atomic_number": 7,
      "melting_point": 63.15,
      "atomic_volume": 17.3,
      "atomic_weight": 14.0067,
      "density": 1.251,
      "atomic_radius": 65.0,
      "nvalence": 5
    }
  },
  "O": {
    "position": [1, 15, "Nonmetal"],
    "properties": {
      "atomic_number": 8,
      "melting_point": 54.36,
      "atomic_volume": 14.0,
      "atomic_weight": 15.9994,
      "density": 1.429,
      "atomic_radius": 60.0,
      "nvalence": 6
    }
  },
  "F": {
    "position": [1, 16, "Halogen"],
    "properties": {
      "atomic_number": 9,
      "melting_point": 53.53,
      "atomic_volume": 17.1,
      "atomic_weight": 18.998403,
      "density": 1.696,
      "atomic_radius": 50.0,
      "nvalence": 7
    }
  },
  "Ne": {
    "position": [1, 17, "Noble gas"],
    "properties": {
      "atomic_number": 10,
      "melting_point": 24.56,
      "atomic_volume": 16.7,
      "atomic_weight": 20.179,
      "density": 0.901,
      "atomic_radius": 160.0,
      "nvalence": 0
    }
  },
  "Na": {
    "position": [2, 0, "Alkali metal"],
    "properties": {
      "atomic_number": 11,
      "melting_point": 370.87,
      "atomic_volume": 23.7,
      "atomic_weight": 22.98977,
      "density": 0.97,
      "atomic_radius": 180.0,
      "nvalence": 1
    }
  },
  "Mg": {
    "position": [2, 1, "Alkaline earth metal"],
    "properties": {
      "atomic_number": 12,
      "melting_point": 923,
      "atomic_volume": 14.0,
      "atomic_weight": 24.305,
      "density": 1.74,
      "atomic_radius": 150.0,
      "nvalence": 2
    }
  },
  "Al": {
    "position": [2, 12, "Post-transition metal"],
    "properties": {
      "atomic_number": 13,
      "melting_point": 933.47,
      "atomic_volume": 10.0,
      "atomic_weight": 26.98154,
      "density": 2.7,
      "atomic_radius": 143.0,
      "nvalence": 3
    }
  },
  "Si": {
    "position": [2, 13, "Metalloid"],
    "properties": {
      "atomic_number": 14,
      "melting_point": 1687,
      "atomic_volume": 12.1,
      "atomic_weight": 28.0855,
      "density": 2.33,
      "atomic_radius": 110.0,
      "nvalence": 4
    }
  },
  "P": {
    "position": [2, 14, "Nonmetal"],
    "properties": {
      "atomic_number": 15,
      "melting_point": 317.3,
      "atomic_volume": 17.0,
      "atomic_weight": 30.97376,
      "density": 1.82,
      "atomic_radius": 100.0,
      "nvalence": 5
    }
  },
  "S": {
    "position": [2, 15, "Nonmetal"],
    "properties": {
      "atomic_number": 16,
      "melting_point": 388.36,
      "atomic_volume": 15.5,
      "atomic_weight": 32.06,
      "density": 2.07,
      "atomic_radius": 100.0,
      "nvalence": 6
    }
  },
  "Cl": {
    "position": [2, 16, "Halogen"],
    "properties": {
      "atomic_number": 17,
      "melting_point": 171.6,
      "atomic_volume": 18.7,
      "atomic_weight": 35.453,
      "density": 3.17,
      "atomic_radius": 100.0,
      "nvalence": 7
    }
  },
  "Ar": {
    "position": [2, 17, "Noble gas"],
    "properties": {
      "atomic_number": 18,
      "melting_point": 83.81,
      "atomic_volume": 24.2,
      "atomic_weight": 39.948,
      "density": 1.784,
      "atomic_radius": 71.0,
      "nvalence": 0
    }
  },
  "K": {
    "position": [3, 0, "Alkali metal"],
    "properties": {
      "atomic_number": 19,
      "melting_point": 336.53,
      "atomic_volume": 45.3,
      "atomic_weight": 39.0983,
      "density": 1.784,
      "atomic_radius": 220.0,
      "nvalence": 1
    }
  },
  "Ca": {
    "position": [3, 1, "Alkaline earth metal"],
    "properties": {
      "atomic_number": 20,
      "melting_point": 1115,
      "atomic_volume": 29.9,
      "atomic_weight": 40.08,
      "density": 1.55,
      "atomic_radius": 180.0,
      "nvalence": 2
    }
  },
  "Sc": {
    "position": [3, 2, "Transition metal"],
    "properties": {
      "atomic_number": 21,
      "melting_point": 1814,
      "atomic_volume": 15.0,
      "atomic_weight": 44.9559,
      "density": 3,
      "atomic_radius": 160.0,
      "nvalence": 3
    }
  },
  "Ti": {
    "position": [3, 3, "Transition metal"],
    "properties": {
      "atomic_number": 22,
      "melting_point": 1941,
      "atomic_volume": 10.6,
      "atomic_weight": 47.9,
      "density": 4.5,
      "atomic_radius": 146.0,
      "nvalence": 4
    }
  },
  "V": {
    "position": [3, 4, "Transition metal"],
    "properties": {
      "atomic_number": 23,
      "melting_point": 2183,
      "atomic_volume": 8.35,
      "atomic_weight": 50.9415,
      "density": 5.8,
      "atomic_radius": 135.0,
      "nvalence": 5
    }
  },
  "Cr": {
    "position": [3, 5, "Transition metal"],
    "properties": {
      "atomic_number": 24,
      "melting_point": 2180,
      "atomic_volume": 7.23,
      "atomic_weight": 51.996,
      "density": 7.19,
      "atomic_radius": 128.0,
      "nvalence": 6
    }
  },
  "Mn": {
    "position": [3, 6, "Transition metal"],
    "properties": {
      "atomic_number": 25,
      "melting_point": 1519,
      "atomic_volume": 7.39,
      "atomic_weight": 54.938,
      "density": 7.43,
      "atomic_radius": 126.0,
      "nvalence": 7
    }
  },
  "Fe": {
    "position": [3, 7, "Transition metal"],
    "properties": {
      "atomic_number": 26,
      "melting_point": 1811,
      "atomic_volume": 7.09,
      "atomic_weight": 55.847,
      "density": 7.86,
      "atomic_radius": 127.0,
      "nvalence": 8
    }
  },
  "Co": {
    "position": [3, 8, "Transition metal"],
    "properties": {
      "atomic_number": 27,
      "melting_point": 1768,
      "atomic_volume": 6.7,
      "atomic_weight": 58.9332,
      "density": 8.9,
      "atomic_radius": 135.0,
      "nvalence": 9
    }
  },
  "Ni": {
    "position": [3, 9, "Transition metal"],
    "properties": {
      "atomic_number": 28,
      "melting_point": 1728,
      "atomic_volume": 6.59,
      "atomic_weight": 58.7,
      "density": 8.9,
      "atomic_radius": 125.0,
      "nvalence": 10
    }
  },
  "Cu": {
    "position": [3, 10, "Transition metal"],
    "properties": {
      "atomic_number": 29,
      "melting_point": 1357.77,
      "atomic_volume": 7.1,
      "atomic_weight": 63.546,
      "density": 8.96,
      "atomic_radius": 128.0,
      "nvalence": 11
    }
  },
  "Zn": {
    "position": [3, 11, "Transition metal"],
    "properties": {
      "atomic_number": 30,
      "melting_point": 692.68,
      "atomic_volume": 9.2,
      "atomic_weight": 65.38,
      "density": 7.14,
      "atomic_radius": 135.0,
      "nvalence": 12
    }
  },
  "Ga": {
    "position": [3, 12, "Post-transition metal"],
    "properties": {
      "atomic_number": 31,
      "melting_point": 302.91,
      "atomic_volume": 11.8,
      "atomic_weight": 69.72,
      "density": 5.91,
      "atomic_radius": 130.0,
      "nvalence": 3
    }
  },
  "Ge": {
    "position": [3, 13, "Metalloid"],
    "properties": {
      "atomic_number": 32,
      "melting_point": 1211.4,
      "atomic_volume": 13.6,
      "atomic_weight": 72.59,
      "density": 5.32,
      "atomic_radius": 125.0,
      "nvalence": 4
    }
  },
  "As": {
    "position": [3, 14, "Metalloid"],
    "properties": {
      "atomic_number": 33,
      "melting_point": 1090,
      "atomic_volume": 13.1,
      "atomic_weight": 74.9216,
      "density": 5.72,
      "atomic_radius": 115.0,
      "nvalence": 5
    }
  },
  "Se": {
    "position": [3, 15, "Nonmetal"],
    "properties": {
      "atomic_number": 34,
      "melting_point": 494,
      "atomic_volume": 16.5,
      "atomic_weight": 78.96,
      "density": 4.8,
      "atomic_radius": 115.0,
      "nvalence": 6
    }
  },
  "Br": {
    "position": [3, 16, "Halogen"],
    "properties": {
      "atomic_number": 35,
      "melting_point": 265.9,
      "atomic_volume": 23.5,
      "atomic_weight": 79.904,
      "density": 3.12,
      "atomic_radius": 115.0,
      "nvalence": 7
    }
  },
  "Kr": {
    "position": [3, 17, "Noble gas"],
    "properties": {
      "atomic_number": 36,
      "melting_point": 115.79,
      "atomic_volume": 32.2,
      "atomic_weight": 83.8,
      "density": 3.74,
      "atomic_radius": 88,
      "nvalence": 8
    }
  },
  "Rb": {
    "position": [4, 0, "Alkali metal"],
    "properties": {
      "atomic_number": 37,
      "melting_point": 312.46,
      "atomic_volume": 55.9,
      "atomic_weight": 85.4678,
      "density": 1.53,
      "atomic_radius": 235.0,
      "nvalence": 1
    }
  },
  "Sr": {
    "position": [4, 1, "Alkaline earth metal"],
    "properties": {
      "atomic_number": 38,
      "melting_point": 1050,
      "atomic_volume": 33.7,
      "atomic_weight": 87.62,
      "density": 2.6,
      "atomic_radius": 200.0,
      "nvalence": 2
    }
  },
  "Y": {
    "position": [4, 2, "Transition metal"],
    "properties": {
      "atomic_number": 39,
      "melting_point": 1799,
      "atomic_volume": 19.8,
      "atomic_weight": 88.9059,
      "density": 4.5,
      "atomic_radius": 180.0,
      "nvalence": 3
    }
  },
  "Zr": {
    "position": [4, 3, "Transition metal"],
    "properties": {
      "atomic_number": 40,
      "melting_point": 2128,
      "atomic_volume": 14.1,
      "atomic_weight": 91.22,
      "density": 6.49,
      "atomic_radius": 160.0,
      "nvalence": 4
    }
  },
  "Nb": {
    "position": [4, 4, "Transition metal"],
    "properties": {
      "atomic_number": 41,
      "melting_point": 2750,
      "atomic_volume": 10.9,
      "atomic_weight": 92.9064,
      "density": 8.55,
      "atomic_radius": 147.0,
      "nvalence": 5
    }
  },
  "Mo": {
    "position": [4, 5, "Transition metal"],
    "properties": {
      "atomic_number": 42,
      "melting_point": 2896,
      "atomic_volume": 9.4,
      "atomic_weight": 95.94,
      "density": 10.2,
      "atomic_radius": 145.0,
      "nvalence": 6
    }
  },
  "Tc": {
    "position": [4, 6, "Transition metal"],
    "properties": {
      "atomic_number": 43,
      "melting_point": 2430,
      "atomic_volume": 8.5,
      "atomic_weight": 98,
      "density": 11.5,
      "atomic_radius": 135.0,
      "nvalence": 7
    }
  },
  "Ru": {
    "position": [4, 7, "Transition metal"],
    "properties": {
      "atomic_number": 44,
      "melting_point": 2607,
      "atomic_volume": 8.3,
      "atomic_weight": 101.07,
      "density": 12.2,
      "atomic_radius": 130.0,
      "nvalence": 8
    }
  },
  "Rh": {
    "position": [4, 8, "Transition metal"],
    "properties": {
      "atomic_number": 45,
      "melting_point": 2237,
      "atomic_volume": 8.3,
      "atomic_weight": 102.9055,
      "density": 12.4,
      "atomic_radius": 135.0,
      "nvalence": 9
    }
  },
  "Pd": {
    "position": [4, 9, "Transition metal"],
    "properties": {
      "atomic_number": 46,
      "melting_point": 1828.05,
      "atomic_volume": 8.9,
      "atomic_weight": 106.4,
      "density": 12,
      "atomic_radius": 140.0,
      "nvalence": 10
    }
  },
  "Ag": {
    "position": [4, 10, "Transition metal"],
    "properties": {
      "atomic_number": 47,
      "melting_point": 1234.93,
      "atomic_volume": 10.3,
      "atomic_weight": 107.868,
      "density": 10.5,
      "atomic_radius": 160.0,
      "nvalence": 11
    }
  },
  "Cd": {
    "position": [4, 11, "Transition metal"],
    "properties": {
      "atomic_number": 48,
      "melting_point": 594.22,
      "atomic_volume": 13.0,
      "atomic_weight": 112.41,
      "density": 8.65,
      "atomic_radius": 155.0,
      "nvalence": 12
    }
  },
  "In": {
    "position": [4, 12, "Post-transition metal"],
    "properties": {
      "atomic_number": 49,
      "melting_point": 429.75,
      "atomic_volume": 15.7,
      "atomic_weight": 114.82,
      "density": 7.31,
      "atomic_radius": 155.0,
      "nvalence": 3
    }
  },
  "Sn": {
    "position": [4, 13, "Post-transition metal"],
    "properties": {
      "atomic_number": 50,
      "melting_point": 505.08,
      "atomic_volume": 16.3,
      "atomic_weight": 118.69,
      "density": 7.3,
      "atomic_radius": 145.0,
      "nvalence": 4
    }
  },
  "Sb": {
    "position": [4, 14, "Metalloid"],
    "properties": {
      "atomic_number": 51,
      "melting_point": 903.78,
      "atomic_volume": 18.2,
      "atomic_weight": 121.75,
      "density": 6.68,
      "atomic_radius": 145.0,
      "nvalence": 5
    }
  },
  "Te": {
    "position": [4, 15, "Metalloid"],
    "properties": {
      "atomic_number": 52,
      "melting_point": 722.66,
      "atomic_volume": 20.5,
      "atomic_weight": 127.6,
      "density": 6.24,
      "atomic_radius": 140.0,
      "nvalence": 6
    }
  },
  "I": {
    "position": [4, 16, "Halogen"],
    "properties": {
      "atomic_number": 53,
      "melting_point": 386.85,
      "atomic_volume": 25.7,
      "atomic_weight": 126.9045,
      "density": 4.92,
      "atomic_radius": 140.0,
      "nvalence": 7
    }
  },
  "Xe": {
    "position": [4, 17, "Noble gas"],
    "properties": {
      "atomic_number": 54,
      "melting_point": 161.36,
      "atomic_volume": 37.3,
      "atomic_weight": 131.3,
      "density": 5.89,
      "atomic_radius": 108,
      "nvalence": 8
    }
  },
  "Cs": {
    "position": [5, 0, "Alkali metal"],
    "properties": {
      "atomic_number": 55,
      "melting_point": 301.59,
      "atomic_volume": 70.0,
      "atomic_weight": 132.9054,
      "density": 1.87,
      "atomic_radius": 260.0,
      "nvalence": 1
    }
  },
  "Ba": {
    "position": [5, 1, "Alkaline earth metal"],
    "properties": {
      "atomic_number": 56,
      "melting_point": 1000,
      "atomic_volume": 39.2,
      "atomic_weight": 137.33,
      "density": 3.5,
      "atomic_radius": 215.0,
      "nvalence": 2
    }
  },
  "La": {
    "position": [5, 2, "Lanthanide"],
    "properties": {
      "atomic_number": 57,
      "melting_point": 1193,
      "atomic_volume": 22.5,
      "atomic_weight": 138.9055,
      "density": 6.7,
      "atomic_radius": 195.0,
      "nvalence": 3
    }
  },
  "Ce": {
    "position": [8, 3, "Lanthanide"],
    "properties": {
      "atomic_number": 58,
      "melting_point": 1068,
      "atomic_volume": 20.7,
      "atomic_weight": 140.12,
      "density": 6.78,
      "atomic_radius": 185.0,
      "nvalence": 3
    }
  },
  "Pr": {
    "position": [8, 4, "Lanthanide"],
    "properties": {
      "atomic_number": 59,
      "melting_point": 1208,
      "atomic_volume": 20.8,
      "atomic_weight": 140.9077,
      "density": 6.77,
      "atomic_radius": 185.0,
      "nvalence": 3
    }
  },
  "Nd": {
    "position": [8, 5, "Lanthanide"],
    "properties": {
      "atomic_number": 60,
      "melting_point": 1297,
      "atomic_volume": 20.6,
      "atomic_weight": 144.24,
      "density": 7,
      "atomic_radius": 185.0,
      "nvalence": 3
    }
  },
  "Pm": {
    "position": [8, 6, "Lanthanide"],
    "properties": {
      "atomic_number": 61,
      "melting_point": 1315,
      "atomic_volume": 20.5,
      "atomic_weight": 145,
      "density": 6.475,
      "atomic_radius": 185.0,
      "nvalence": 3
    }
  },
  "Sm": {
    "position": [8, 7, "Lanthanide"],
    "properties": {
      "atomic_number": 62,
      "melting_point": 1345,
      "atomic_volume": 19.9,
      "atomic_weight": 150.4,
      "density": 7.54,
      "atomic_radius": 185.0,
      "nvalence": 3
    }
  },
  "Eu": {
    "position": [8, 8, "Lanthanide"],
    "properties": {
      "atomic_number": 63,
      "melting_point": 1095,
      "atomic_volume": 20.8,
      "atomic_weight": 151.96,
      "density": 5.26,
      "atomic_radius": 185.0,
      "nvalence": 3
    }
  },
  "Gd": {
    "position": [8, 9, "Lanthanide"],
    "properties": {
      "atomic_number": 64,
      "melting_point": 1585,
      "atomic_volume": 19.9,
      "atomic_weight": 157.25,
      "density": 7.89,
      "atomic_radius": 180.0,
      "nvalence": 3
    }
  },
  "Tb": {
    "position": [8, 10, "Lanthanide"],
    "properties": {
      "atomic_number": 65,
      "melting_point": 1629,
      "atomic_volume": 19.2,
      "atomic_weight": 158.9254,
      "density": 8.27,
      "atomic_radius": 175.0,
      "nvalence": 3
    }
  },
  "Dy": {
    "position": [8, 11, "Lanthanide"],
    "properties": {
      "atomic_number": 66,
      "melting_point": 1680,
      "atomic_volume": 19.0,
      "atomic_weight": 162.5,
      "density": 8.54,
      "atomic_radius": 175.0,
      "nvalence": 3
    }
  },
  "Ho": {
    "position": [8, 12, "Lanthanide"],
    "properties": {
      "atomic_number": 67,
      "melting_point": 1734,
      "atomic_volume": 18.7,
      "atomic_weight": 164.9304,
      "density": 8.8,
      "atomic_radius": 175.0,
      "nvalence": 3
    }
  },
  "Er": {
    "position": [8, 13, "Lanthanide"],
    "properties": {
      "atomic_number": 68,
      "melting_point": 1802,
      "atomic_volume": 18.4,
      "atomic_weight": 167.26,
      "density": 9.05,
      "atomic_radius": 175.0,
      "nvalence": 3
    }
  },
  "Tm": {
    "position": [8, 14, "Lanthanide"],
    "properties": {
      "atomic_number": 69,
      "melting_point": 1818,
      "atomic_volume": 18.1,
      "atomic_weight": 168.9342,
      "density": 9.33,
      "atomic_radius": 175.0,
      "nvalence": 3
    }
  },
  "Yb": {
    "position": [8, 15, "Lanthanide"],
    "properties": {
      "atomic_number": 70,
      "melting_point": 1097,
      "atomic_volume": 24.8,
      "atomic_weight": 173.04,
      "density": 6.98,
      "atomic_radius": 175.0,
      "nvalence": 3
    }
  },
  "Lu": {
    "position": [8, 16, "Lanthanide"],
    "properties": {
      "atomic_number": 71,
      "melting_point": 1925,
      "atomic_volume": 17.8,
      "atomic_weight": 174.967,
      "density": 9.84,
      "atomic_radius": 175.0,
      "nvalence": 3
    }
  },
  "Hf": {
    "position": [5, 3, "Transition metal"],
    "properties": {
      "atomic_number": 72,
      "melting_point": 2506,
      "atomic_volume": 13.4,
      "atomic_weight": 178.49,
      "density": 13.1,
      "atomic_radius": 155.0,
      "nvalence": 4
    }
  },
  "Ta": {
    "position": [5, 4, "Transition metal"],
    "properties": {
      "atomic_number": 73,
      "melting_point": 3290,
      "atomic_volume": 10.8,
      "atomic_weight": 180.9479,
      "density": 16.6,
      "atomic_radius": 145.0,
      "nvalence": 5
    }
  },
  "W": {
    "position": [5, 5, "Transition metal"],
    "properties": {
      "atomic_number": 74,
      "melting_point": 3695,
      "atomic_volume": 9.53,
      "atomic_weight": 183.85,
      "density": 19.3,
      "atomic_radius": 135.0,
      "nvalence": 6
    }
  },
  "Re": {
    "position": [5, 6, "Transition metal"],
    "properties": {
      "atomic_number": 75,
      "melting_point": 3459,
      "atomic_volume": 8.85,
      "atomic_weight": 186.207,
      "density": 21,
      "atomic_radius": 135.0,
      "nvalence": 7
    }
  },
  "Os": {
    "position": [5, 7, "Transition metal"],
    "properties": {
      "atomic_number": 76,
      "melting_point": 3306,
      "atomic_volume": 8.49,
      "atomic_weight": 190.2,
      "density": 22.4,
      "atomic_radius": 130.0,
      "nvalence": 8
    }
  },
  "Ir": {
    "position": [5, 8, "Transition metal"],
    "properties": {
      "atomic_number": 77,
      "melting_point": 2719,
      "atomic_volume": 8.54,
      "atomic_weight": 192.22,
      "density": 22.5,
      "atomic_radius": 135.0,
      "nvalence": 9
    }
  },
  "Pt": {
    "position": [5, 9, "Transition metal"],
    "properties": {
      "atomic_number": 78,
      "melting_point": 2041.55,
      "atomic_volume": 9.1,
      "atomic_weight": 195.09,
      "density": 21.4,
      "atomic_radius": 135.0,
      "nvalence": 10
    }
  },
  "Au": {
    "position": [5, 10, "Transition metal"],
    "properties": {
      "atomic_number": 79,
      "melting_point": 1337.33,
      "atomic_volume": 10.2,
      "atomic_weight": 196.9665,
      "density": 19.3,
      "atomic_radius": 135.0,
      "nvalence": 11
    }
  },
  "Hg": {
    "position": [5, 11, "Transition metal"],
    "properties": {
      "atomic_number": 80,
      "melting_point": 234.32,
      "atomic_volume": 14.82,
      "atomic_weight": 200.59,
      "density": 13.53,
      "atomic_radius": 150.0,
      "nvalence": 12
    }
  },
  "Tl": {
    "position": [5, 12, "Post-transition metal"],
    "properties": {
      "atomic_number": 81,
      "melting_point": 577,
      "atomic_volume": 17.2,
      "atomic_weight": 204.37,
      "density": 11.85,
      "atomic_radius": 190.0,
      "nvalence": 3
    }
  },
  "Pb": {
    "position": [5, 13, "Post-transition metal"],
    "properties": {
      "atomic_number": 82,
      "melting_point": 600.61,
      "atomic_volume": 18.3,
      "atomic_weight": 207.2,
      "density": 11.4,
      "atomic_radius": 180.0,
      "nvalence": 4
    }
  },
  "Bi": {
    "position": [5, 14, "Post-transition metal"],
    "properties": {
      "atomic_number": 83,
      "melting_point": 544.4,
      "atomic_volume": 21.3,
      "atomic_weight": 208.9804,
      "density": 9.8,
      "atomic_radius": 160.0,
      "nvalence": 5
    }
  },
  "Po": {
    "position": [5, 15, "Metalloid"],
    "properties": {
      "atomic_number": 84,
      "melting_point": 527,
      "atomic_volume": 22.7,
      "atomic_weight": 209,
      "density": 9.4,
      "atomic_radius": 190.0,
      "nvalence": 6
    }
  },
  "At": {
    "position": [5, 16, "Halogen"],
    "properties": {
      "atomic_number": 85,
      "melting_point": 575,
      "atomic_volume": 25.0,
      "atomic_weight": 210,
      "density": 0,
      "atomic_radius": 127,
      "nvalence": 7
    }
  },
  "Rn": {
    "position": [5, 17, "Noble gas"],
    "properties": {
      "atomic_number": 86,
      "melting_point": 202,
      "atomic_volume": 50.5,
      "atomic_weight": 222,
      "density": 9.91,
      "atomic_radius": 120,
      "nvalence": 8
    }
  },
  "Fr": {
    "position": [6, 0, "Alkali metal"],
    "properties": {
      "atomic_number": 87,
      "melting_point": 300,
      "atomic_volume": 71.0,
      "atomic_weight": 223,
      "density": 0,
      "atomic_radius": 348,
      "nvalence": 1
    }
  },
  "Ra": {
    "position": [6, 1, "Alkaline earth metal"],
    "properties": {
      "atomic_number": 88,
      "melting_point": 973,
      "atomic_volume": 45.5,
      "atomic_weight": 226.0254,
      "density": 5,
      "atomic_radius": 215.0,
      "nvalence": 2
    }
  },
  "Ac": {
    "position": [6, 2, "Actinide"],
    "properties": {
      "atomic_number": 89,
      "melting_point": 1323,
      "atomic_volume": 22.8,
      "atomic_weight": 227.0278,
      "density": 10.07,
      "atomic_radius": 195,
      "nvalence": 3
    }
  },
  "Th": {
    "position": [9, 3, "Actinide"],
    "properties": {
      "atomic_number": 90,
      "melting_point": 2023,
      "atomic_volume": 20.6,
      "atomic_weight": 232.0381,
      "density": 11.7,
      "atomic_radius": 180.0,
      "nvalence": 4
    }
  },
  "Pa": {
    "position": [9, 4, "Actinide"],
    "properties": {
      "atomic_number": 91,
      "melting_point": 1845,
      "atomic_volume": 15.0,
      "atomic_weight": 231.0359,
      "density": 15.4,
      "atomic_radius": 180.0,
      "nvalence": 5
    }
  },
  "U": {
    "position": [9, 5, "Actinide"],
    "properties": {
      "atomic_number": 92,
      "melting_point": 1405.3,
      "atomic_volume": 12.6,
      "atomic_weight": 238.029,
      "density": 18.9,
      "atomic_radius": 175.0,
      "nvalence": 6
    }
  },
  "Np": {
    "position": [9, 6, "Actinide"],
    "properties": {
      "atomic_number": 93,
      "melting_point": 917,
      "atomic_volume": 11.7,
      "atomic_weight": 237.0482,
      "density": 20.4,
      "atomic_radius": 175.0,
      "nvalence": 7
    }
  },
  "Pu": {
    "position": [9, 7, "Actinide"],
    "properties": {
      "atomic_number": 94,
      "melting_point": 912.5,
      "atomic_volume": 12.3,
      "atomic_weight": 244,
      "density": 19.8,
      "atomic_radius": 175.0,
      "nvalence": 8
    }
  },
  "Am": {
    "position": [9, 8, "Actinide"],
    "properties": {
      "atomic_number": 95,
      "melting_point": 1449,
      "atomic_volume": 17.8,
      "atomic_weight": 243,
      "density": 13.6,
      "atomic_radius": 175.0,
      "nvalence": 3
    }
  },
  "Cm": {
    "position": [9, 9, "Actinide"],
    "properties": {
      "atomic_number": 96,
      "melting_point": 1613,
      "atomic_volume": 18.0,
      "atomic_weight": 247,
      "density": 13.511,
      "atomic_radius": 174,
      "nvalence": 3
    }
  },
  "Bk": {
    "position": [9, 10, "Actinide"],
    "properties": {
      "atomic_number": 97,
      "melting_point": 1259,
      "atomic_volume": 16.8,
      "atomic_weight": 247,
      "density": 0,
      "atomic_radius": 170,
      "nvalence": 3
    }
  },
  "Cf": {
    "position": [9, 11, "Actinide"],
    "properties": {
      "atomic_number": 98,
      "melting_point": 1173,
      "atomic_volume": 15.1,
      "atomic_weight": 251,
      "density": 0,
      "atomic_radius": 169,
      "nvalence": 3
    }
  },
  "Es": {
    "position": [9, 12, "Actinide"],
    "properties": {
      "atomic_number": 99,
      "melting_point": 1133,
      "atomic_volume": 15.1,
      "atomic_weight": 252,
      "density": 0,
      "atomic_radius": 169,
      "nvalence": 3
    }
  },
  "Fm": {
    "position": [9, 13, "Actinide"],
    "properties": {
      "atomic_number": 100,
      "melting_point": 1125,
      "atomic_volume": 15.3,
      "atomic_weight": 257,
      "density": 0,
      "atomic_radius": 168,
      "nvalence": 3
    }
  },
  "Md": {
    "position": [9, 14, "Actinide"],
    "properties": {
      "atomic_number": 101,
      "melting_point": 1100,
      "atomic_volume": 13.9,
      "atomic_weight": 258,
      "density": 0,
      "atomic_radius": 167,
      "nvalence": 3
    }
  },
  "No": {
    "position": [9, 15, "Actinide"],
    "properties": {
      "atomic_number": 102,
      "melting_point": 1100,
      "atomic_volume": 13.6,
      "atomic_weight": 259,
      "density": 0,
      "atomic_radius": 166,
      "nvalence": 3
    }
  },
  "Lr": {
    "position": [9, 16, "Actinide"],
    "properties": {
      "atomic_number": 103,
      "melting_point": 1900,
      "atomic_volume": 15.3,
      "atomic_weight": 260,
      "density": 0,
      "atomic_radius": 165,
      "nvalence": 3
    }
  },
  "Rf": {
    "position": [6, 3, "Transition metal"], 
    "properties": {
      "atomic_number": 104, 
      "melting_point": 2400, 
      "atomic_volume": 13.7, 
      "atomic_weight": 261, 
      "atomic_radius": 150, 
      "nvalence": 4
    }
  },
  "Db": {
    "position": [6, 4, "Transition metal"], 
    "properties": {
      "atomic_number": 105, 
      "melting_point": 2700, 
      "atomic_volume": 12.0, 
      "atomic_weight": 262, 
      "atomic_radius": 139, 
      "nvalence": 5
    }
  },
  "Sg": {
    "position": [6, 5, "Transition metal"], 
    "properties": {
      "atomic_number": 106, 
      "melting_point": 2900, 
      "atomic_volume": 12.7, 
      "atomic_weight": 266, 
      "atomic_radius": 125, 
      "nvalence": 6
    }
  },
  "Bh": {
    "position": [6, 6, "Transition metal"], 
    "properties": {
      "atomic_number": 107, 
      "melting_point": 3000, 
      "atomic_volume": 13.3, 
      "atomic_weight": 264, 
      "atomic_radius": 121, 
      "nvalence": 7
    }
  },
  "Hs": {
    "position": [6, 7, "Transition metal"], 
    "properties": {
      "atomic_number": 108, 
      "melting_point": 3200, 
      "atomic_volume": 12.2, 
      "atomic_weight": 277, 
      "atomic_radius": 120, 
      "nvalence": 8
    }
  },
  "Mt": {
    "position": [6, 8, "Transition metal"], 
    "properties": {
      "atomic_number": 109, 
      "melting_point": 1400, 
      "atomic_volume": 11.7, 
      "atomic_weight": 268, 
      "atomic_radius": 115, 
      "nvalence": 9
    }
  },
  "Ds": {
    "position": [6, 9, "Transition metal"], 
    "properties": {
      "atomic_number": 110, 
      "melting_point": 3100, 
      "atomic_volume": 12.1, 
      "atomic_weight": 281, 
      "atomic_radius": 105, 
      "nvalence": 10
    }
  },
  "Rg": {
    "position": [6, 10, "Transition metal"], 
    "properties": {
      "atomic_number": 111, 
      "melting_point": 2400, 
      "atomic_volume": 12.8, 
      "atomic_weight": 272, 
      "atomic_radius": 120, 
      "nvalence": 11
    }
  },
  "Cn": {
    "position": [6, 11, "Transition metal"], 
    "properties": {
      "atomic_number": 112, 
      "melting_point": 2100, 
      "atomic_volume": 13.3, 
      "atomic_weight": 285, 
      "atomic_radius": 130, 
      "nvalence": 12
    }
  },
  "Nh": {
    "position": [6, 12, "Post-transition metal"], 
    "properties": {
      "atomic_number": 113, 
      "melting_point": 1400, 
      "atomic_volume": 13.8, 
      "atomic_weight": 284, 
      "atomic_radius": 135, 
      "nvalence": 13
    }
  },
  "Fl": {
    "position": [6, 13, "Post-transition metal"], 
    "properties": {
      "atomic_number": 114, 
      "melting_point": 2100, 
      "atomic_volume": 14.2, 
      "atomic_weight": 289, 
      "atomic_radius": 140, 
      "nvalence": 14
    }
  },
  "Mc": {
    "position": [6, 14, "Post-transition metal"], 
    "properties": {
      "atomic_number": 115, 
      "melting_point": 2400, 
      "atomic_volume": 14.8, 
      "atomic_weight": 288, 
      "atomic_radius": 145, 
      "nvalence": 15
    }
  },
  "Lv": {
    "position": [6, 15, "Post-transition metal"], 
    "properties": {
      "atomic_number": 116, 
      "melting_point": 2300, 
      "atomic_volume": 15.3, 
      "atomic_weight": 293, 
      "atomic_radius": 150, 
      "nvalence": 16
    }
  },
  "Ts": {
    "position": [6, 16, "Halogen"], 
    "properties": {
      "atomic_number": 117, 
      "melting_point": 2200, 
      "atomic_volume": 15.8, 
      "atomic_weight": 294, 
      "atomic_radius": 155, 
      "nvalence": 17
    }
  },
  "Og": {
    "position": [6, 17, "Noble gas"], 
    "properties": {
      "atomic_number": 118, 
      "melting_point": 2100, 
      "atomic_volume": 16.3, 
      "atomic_weight": 294, 
      "atomic_radius": 160, 
      "nvalence": 18
    }
  }
}